% Model:              Minimal_Model_Test.mph
% Version:            COMSOL 6.1.0.252
% Date:               Jun 3 2025, 10:26
% Dimension:          3
% Nodes:              14706
% Expressions:        3
% Description:        Electric potential
% Length unit:        m
% x                       y                        z                        V (V) @ v1=500           V (V) @ v1=750           V (V) @ v1=1000
0                         0                        0                        0                        0                        0
0                         0                        0.001                    0                        0                        0
0                         0                        0.002                    0                        0                        0
0                         0                        0.0046117448635579       13.325219552059995       19.987829328090044       26.65043910411999
0                         0                        0.007223489727115799     26.650435389040098       39.97565308356024        53.300870778080196
0                         0                        0.011283617915473599     47.365335073767795       71.04800261065179        94.73067014753559
0                         0                        0.0153437461038314       68.08022886134843        102.12034329202278       136.16045772269686
0                         0                        0.020356214929634048     93.65398792142737        140.4809818821413        187.30797584285474
0                         0                        0.0253686837554367       119.22774698913132       178.84162048369737       238.45549397826264
0                         0                        0.030494947157102076     145.3821054631119        218.0731581946682        290.7642109262238
0                         0                        0.03562121055876745      171.53647119031442       257.3047067854721        343.07294238062883
0                         0                        0.04074747370584496      197.69086240335628       296.5362936050349        395.38172480671255
0                         0                        0.04587373685292247      223.8452548671558        335.76788230073413       447.6905097343116
0                         0                        0.05099999999999996      249.9996570981489        374.9994856472236        499.9993141962978
0                         0                        0.05612626314707746      276.15406651751374       414.2310997762707        552.3081330350275
0                         0                        0.06125252629415496      302.30848639615573       453.46272959423396       604.6169727923115
0                         0                        0.06637878944123246      328.46291435712914       492.69437153569396       656.9258287142583
0                         0                        0.07150505284289785      354.6173530410602        531.9260295615908        709.2347060821204
0                         0                        0.07663131624456325      380.7718003893997        571.1577005841001        761.5436007787994
0                         0                        0.08164378507036593      406.3456743277032        609.518511491555         812.6913486554064
0                         0                        0.08665625389616863      431.91955207923866       647.8793281188581        863.8391041584773
0                         0                        0.09071638208452641      452.6345333241053        678.9517999861572        905.2690666482106
0                         0                        0.0947765102728842       473.34950936319586       710.0242640447933        946.6990187263917
0                         0                        0.09738825513644211      486.67475467150064       730.0121320072508        973.3495093430013
0                         0                        0.10000000000000002      500.0000000000001        749.9999999999999        1000.0000000000002
0                         0                        0.10100000000000002      500.0000000000001        750.0000000000001        1000.0000000000002
0                         0                        0.10200000000000002      500.00000000000006       749.9999999999999        1000.0000000000001
0                         0.0019208019970483826    0.0034312665705235243    7.302375033887704        10.953562550831583       14.604750067775408
0                         0.0019208019970483826    0.006043011434081424     20.62759213929815        30.941388208947302       41.2551842785963
0                         0.0019230769230769234    0.1                      500.0000000000001        750.0000000000001        1000.0000000000002
0                         0.0019230769230769234    0.101                    500.0000000000001        750.0000000000001        1000.0000000000002
0                         0.0019230769230769264    0                        0                        0                        0
0                         0.0019230769230769264    0.001                    0                        0                        0
0                         0.0019230769230769264    0.10200000000000001      500.0000000000001        750.0000000000001        1000.0000000000002
0                         0.0019230769230769301    0.002                    0                        0                        0
0                         0.0019286969076924656    0.09582332363648784      478.6903998616652        718.0355997924976        957.3807997233304
0                         0.0019286969076924656    0.09843506850004574      492.0156457485917        738.0234686228874        984.0312914971834
0                         0.002737150108275277     0.08793443110639923      438.44087866103405       657.661317991551         876.8817573220681
0                         0.002737150108275277     0.09199455929475701      459.1558582080373        688.7337873120555        918.3117164160745
0                         0.00289472260839596      0.009455438748231425     38.037910616432626       57.05686592464904        76.07582123286525
0                         0.00289472260839596      0.013515566936589226     58.752805741780854       88.12920861267139        117.50561148356171
0                         0.0033740234486121946    0.07867247756985218      391.1859090991091        586.7788636486642        782.3718181982182
0                         0.0033740234486121946    0.08368494639565488      416.75978564486087       625.1396784672916        833.5195712897217
0                         0.0035687095644573357    0.0177901771072962       80.56198900802467        120.84298351203721       161.12397801604934
0                         0.0035687095644573357    0.02280264593309885      106.1357486940963        159.2036230411447        212.2714973881926
0                         0.0037033273647701674    0.06821320471767818      337.82218502483397       506.7332775372515        675.6443700496679
0                         0.0037033273647701674    0.07333946811934358      363.97662664747753       545.9649399712173        727.9532532949551
0                         0.0038416039940967653    0.004862533141047049     14.60474916203327        21.90712374304994        29.20949832406654
0                         0.003843878920125313     0.0034312665705235243    7.302374785478136        10.95356217821722        14.604749570956272
0                         0.003846153846153847     0.1                      500.00000000000006       750                      1000.0000000000001
0                         0.00384615384615385      0.101                    500.0000000000001        750.0000000000001        1000.0000000000002
0                         0.003846153846153853     0                        0                        0                        0
0                         0.003846153846153853     0.10200000000000001      500.00000000000006       750                      1000.0000000000001
0                         0.0038461538461538568    0.001                    0                        0                        0
0                         0.0038461538461538602    0.002                    0                        0                        0
0                         0.0038517738307693892    0.09843506850004574      492.0156457577062        738.0234686365594        984.0312915154124
0                         0.003857393815384931     0.09687013700009148      484.0312913549523        726.0469370324282        968.0625827099046
0                         0.0038903313691831085    0.05853125339807343      288.4244295517776        432.6366443276666        576.8488591035552
0                         0.0038903313691831085    0.06365751654515092      314.57885355616224       471.8682803342436        629.1577071123245
0                         0.003890955047939732     0.027645592553283034     130.84460564761733       196.2669084714264        261.68921129523466
0                         0.003890955047939732     0.03277185595494841      156.99896888367527       235.4984533255132        313.99793776735055
0                         0.004424690152693989     0.048436868426461215     236.9224544140717        355.38368162110777       473.8449088281434
0                         0.004424690152693989     0.05356313157353871      263.07685969701726       394.61528954552585       526.1537193940345
0                         0.004424690152693995     0.038184342132306204     184.6136680768092        276.92050211521416       369.2273361536184
0                         0.004424690152693995     0.04331060527938371      210.768058596867         316.1520878953008        421.536117193734
0                         0.004665847015967743     0.09304137265836065      464.4967511960667        696.7451267940996        928.9935023921335
0                         0.004815524605444343     0.00827496045519705      32.015072646180656       48.022608969271104       64.03014529236131
0                         0.005474300216550554     0.08921260831662983      444.9622068379792        667.4433102569684        889.9244136759584
0                         0.005766955843202225     0.0034312665705235243    7.3023747946265045       10.95356219193978        14.604749589253009
0                         0.005769230769230773     0.002                    0                        0                        0
0                         0.005769230769230773     0.10200000000000002      500.0000000000001        750.0000000000001        1000.0000000000002
0                         0.005769230769230774     0.1                      500.0000000000001        750.0000000000001        1000.0000000000002
0                         0.005769230769230777     0                        0                        0                        0
0                         0.005769230769230777     0.101                    500.00000000000017       750.0000000000001        1000.0000000000003
0                         0.005769230769230781     0.001                    0                        0                        0
0                         0.005774850753846317     0.09843506850004574      492.0156459965539        738.0234689948306        984.0312919931079
0                         0.00578944521679192      0.01168738776934705      49.42538402645826        74.13807603968755        98.85076805291652
0                         0.006111173556887471     0.08496312360588548      423.2811131619603        634.9216697429405        846.5622263239206
0                         0.006297470955186237     0.096418764432831        481.7283675549858        722.5925513324786        963.4567351099716
0                         0.006413737405551501     0.0051345299329975625    15.992485833890084       23.98872875083519        31.98497166778017
0                         0.006463432172853296     0.015961997940054026     71.23456622202617        106.85184933303943       142.46913244405235
0                         0.006748046897224389     0.08071363889514112      401.600019002567         602.4000285038512        803.200038005134
0                         0.007077350813382362     0.0753806294446325       374.39073076669365       561.5860961500413        748.7814615333873
0                         0.007105924155769048     0.09259000009110017      462.19382765057634       693.2907414758646        924.3876553011527
0                         0.007137419128914671     0.020236608110761        93.0437459810614         139.56561897159233       186.0874919621228
0                         0.0073876580168990786    0.008546957247147564     33.402807197844794       50.10421079676727        66.80561439568959
0                         0.007406654729540335     0.0700476199941239       347.1814536406456        520.7721804609693        694.3629072812912
0                         0.0074596646123970675    0.025079554730945183     117.75260422010729       176.62890633016116       235.50520844021457
0                         0.007593658733953276     0.06549193182159664      323.9381209480818        485.9071814221231        647.8762418961636
0                         0.007692307692307685     0.002                    0                        0                        0
0                         0.007692307692307693     0.001                    0                        0                        0
0                         0.007692307692307694     0.10200000000000004      500.00000000000006       750                      1000.0000000000001
0                         0.007692307692307698     0.10100000000000003      500.00000000000017       750.0000000000001        1000.0000000000003
0                         0.007692307692307701     0                        0                        0                        0
0                         0.007692307692307701     0.10000000000000002      500.00000000000006       750                      1000.0000000000001
0                         0.007780662738366217     0.06093624364906939      300.6947923201682        451.0421884802526        601.3895846403364
0                         0.007781910095879464     0.029922501351129366     142.46146628104825       213.69219942157287       284.9229325620965
0                         0.008214927893647622     0.09798369593278528      489.7127224534529        734.5690836801792        979.4254449069058
0                         0.008315021521877098     0.05596812182453467      275.3472188987831        413.02082834817486       550.6944377975663
0                         0.008315645200633727     0.035334987528487155     170.07616069130782       255.1142410369621        340.15232138261564
0                         0.008339089254656961     0.0037032633624740382    8.690112081296379        13.035168121944592       17.380224162592757
0                         0.008737548094987543     0.09596739186557052      479.42544463675677       719.1381669551354        958.8508892735135
0                         0.008765950208731579     0.09091498676855189      453.647827717486         680.4717415762289        907.295655434972
0                         0.008849380305387977     0.05099999999999996      249.99965347207595       374.99948020811377       499.9993069441519
0                         0.008849380305387983     0.04587373685292245      223.84525592875076       335.7678838931264        447.6905118575015
0                         0.00884938030538799      0.04074747370584495      197.69086441968352       296.53629662952557       395.38172883936704
0                         0.008985870817006237     0.0054065267249480764    17.3802236030136         26.070335404520446       34.7604472060272
0                         0.009121498385904175     0.01031633104817688      42.430209749260364       63.64531462389066        84.86041949852073
0                         0.009615384615384607     0.002                    0                        0                        0
0                         0.009615384615384616     0.10100000000000003      500.00000000000017       750.0000000000001        1000.0000000000003
0                         0.00961538461538462      0.001                    0                        0                        0
0                         0.00961538461538462      0.10000000000000002      500.0000000000001        750.0000000000001        1000.0000000000002
0                         0.00961538461538462      0.10200000000000004      500.0000000000001        750.0000000000001        1000.0000000000002
0                         0.009615384615384626     0                        0                        0                        0
0                         0.009919969272037504     0.08809233146872042      439.2464944999758        658.8697417499636        878.4929889999516
0                         0.009947802303465876     0.013548079706332995     58.91868626722505        88.37802940083775        117.8373725344501
0                         0.010138004816724541     0.09798369593278528      489.71272263839256       734.5690839575888        979.4254452767851
0                         0.010262166177733883     0.0037032633624740382    8.69011191735052         13.0351678760258         17.38022383470104
0                         0.010397574147950072     0.09429237854302223      470.8794476534434        706.3191714801652        941.7588953068868
0                         0.01045175790192607      0.0774112168184949       384.75089264356933       577.1263389653544        769.5017852871387
0                         0.010556842612374422     0.08384284675797607      417.5654028501461        626.3481042752192        835.1308057002922
0                         0.010621789259527252     0.01782268987703997      80.72786873674828        121.09180310512265       161.45573747349655
0                         0.010719711186011335     0.007175900525977394     26.407629266778603       39.61144390016796        52.815258533557206
0                         0.010781061818084043     0.07207820736798629      357.54161123064097       536.3124168459622        715.0832224612819
0                         0.011088738087455885     0.09612258575207741      480.21725136669295       720.3258770500395        960.4345027333859
0                         0.01115850207918434      0.022754606543553935     105.8906507084622        158.8359760626936        211.7813014169244
0                         0.011375753646822043     0.005526727805042739     17.99349234512924        26.990238517693896       35.98698469025848
0                         0.011480747562666736     0.027597553163738117     130.59951091183697       195.8992663677558        261.19902182367395
0                         0.01153846153846153      0.002                    0                        0                        0
0                         0.011538461538461539     0.10000000000000002      500.00000000000006       750                      1000.0000000000001
0                         0.011538461538461543     0.001                    0                        0                        0
0                         0.011538461538461543     0.10100000000000002      500.00000000000017       750.0000000000001        1000.0000000000003
0                         0.011538461538461546     0.10200000000000002      500.00000000000006       750                      1000.0000000000001
0                         0.011538461538461553     0                        0                        0                        0
0                         0.011750437815853023     0.08045029948842314      400.25645088066767       600.3846763210017        800.5129017613353
0                         0.011897693205141805     0.05838086901825221      287.65715790421143       431.4857368563173        575.3143158084229
0                         0.011921772903333142     0.06822333794489999      337.87388170464186       506.8108225569634        675.7477634092837
0                         0.012057600200912602     0.09261736522047395      462.3334486691211        693.5001730036819        924.6668973382422
0                         0.012108776907746081     0.06366764977237274      314.6305486107817        471.94582291617286       629.2610972215634
0                         0.012192078663317727     0.03264048759869373      156.3287319739711        234.493097960957         312.6574639479422
0                         0.012432051988652687     0.05341274719371749      262.3095890714955        393.4643836072434        524.619178142991
0                         0.01245355155501643      0.008945274327006713     35.43503493386319        53.152552400794875       70.87006986772639
0                         0.012489194809192883     0.09813888981929215      490.50452931372894       735.7567939705935        981.0090586274579
0                         0.01265204900754969      0.0038234644425687004    9.303381907755721        13.955072861633598       18.606763815511442
0                         0.01272581376807199      0.03805297377605152      183.9434272948449        275.91514094226767       367.8868545896898
0                         0.012748764140418416     0.09444757242952911      471.67125452713236       707.5068817906985        943.3425090542647
0                         0.012890576339300741     0.04841933200952166      236.8329801475903        355.24947022138554       473.6659602951806
0                         0.012890576339300746     0.04329306886244415      210.67858560764532       316.0178784114683        421.35717121529063
0                         0.01310959401582714      0.007296101606072056     27.02089918796086        40.53134878194134        54.04179837592172
0                         0.013211619264218528     0.08979470992064248      447.9321170729745        671.8981756094616        895.864234145949
0                         0.013279855472578131     0.012177022985162825     51.92351455450305        77.88527183175472        103.8470291090061
0                         0.013439928079924227     0.09627777963858429      481.0090583833736        721.5135875750603        962.0181167667472
0                         0.013461538461538459     0.002                    0                        0                        0
0                         0.013461538461538462     0.001                    0                        0                        0
0                         0.013461538461538462     0.10000000000000003      500.0000000000001        750.0000000000001        1000.0000000000002
0                         0.013461538461538466     0.10100000000000003      500.00000000000017       750.0000000000001        1000.0000000000003
0                         0.013461538461538466     0.10200000000000004      500.0000000000001        750.0000000000001        1000.0000000000002
0                         0.013461538461538474     0                        0                        0                        0
0                         0.01376563647663785      0.005646928885137401     18.606762935627035       27.910144403440594       37.21352587125407
0                         0.013834000018490882     0.09277924155286935      463.15934973351654       694.7390246002748        926.3186994670331
0                         0.014106159390139832     0.01540877164331894      68.41199064375553        102.61798596563352       136.82398128751106
0                         0.01415546890662775      0.07410879474184869      367.901770556724         551.8526558350867        735.803541113448
0                         0.014365638327524454     0.086972054620811        433.5307845796424        650.2961768694632        867.0615691592848
0                         0.014412271732269806     0.09813888981929217      490.50452955095426       735.7567943264313        981.0090591019085
0                         0.014525163957996695     0.09460944876192451      472.49715449080793       708.7457317362121        944.9943089816159
0                         0.014575125930626619     0.0038234644425687004    9.30338194094874         13.955072911423125       18.60676388189748
0                         0.01464287220979692      0.020340688309832905     93.57477118203747        140.36215677305637       187.14954236407493
0                         0.01486445738387205      0.008905123964756432     35.23018611157174        52.84527916735767        70.46037222314348
0                         0.014988019081796807     0.08995658625303787      448.7580186325331        673.1370279487996        897.5160372650662
0                         0.015179585029454008     0.025272604976346872     118.73755431328603       178.1063314699293        237.47510862657205
0                         0.015296179991876848     0.07025392531876239      348.2340384117055        522.3510576175585        696.468076823411
0                         0.015384615384615385     0.002                    0                        0                        0
0                         0.015384615384615385     0.10000000000000003      500.00000000000006       750                      1000.0000000000001
0                         0.015384615384615385     0.10100000000000003      500.00000000000017       750.0000000000001        1000.0000000000003
0                         0.015384615384615385     0.10200000000000004      500.00000000000006       750                      1000.0000000000001
0                         0.01538461538461539      0.001                    0                        0                        0
0                         0.015384615384615396     0                        0                        0                        0
0                         0.015454148820554703     0.07714787741177692      383.4073254790655        575.1109882185983        766.814650958131
0                         0.015470064860291004     0.0050965561439175085    15.79874245779609        23.69811368669416        31.59748491559218
0                         0.0154934062009091       0.09629741513853433      481.1092390161568        721.6638585242351        962.2184780323136
0                         0.015520499844682761     0.007255951243821775     26.81605153083664        40.224077296255004       53.63210306167328
0                         0.015559233531003056     0.08357950735125809      416.2218331530583        624.3327497295871        832.4436663061166
0                         0.015610399836069162     0.09294111788526473      463.9852497533601        695.9778746300401        927.9704995067202
0                         0.01569076130143375      0.012136872622912544     51.7186666296673         77.57799994450107        103.4373332593346
0                         0.015890916130105        0.03031553941130248      144.46677143001506       216.70015714502284       288.9335428600301
0                         0.016014723671917395     0.05582549438743502      274.6195244273841        411.9292866410767        549.2390488547682
0                         0.016225807374521672     0.06111227514155555      301.59291229422735       452.38936844134133       603.1858245884547
0                         0.01627955431427977      0.003273091701348808     6.495361252241609        9.74304187836242         12.990722504483218
0                         0.016436891077125947     0.06639905589567609      328.5663093939237        492.84946409088565       657.1326187878474
0                         0.016465749853254677     0.09815852531924221      490.6047105223559        735.9070657835337        981.2094210447118
0                         0.01647324802256545      0.050832079203239185     249.14291264946522       373.7143689741981        498.28582529893043
0                         0.01657864207898157      0.09462908426187455      472.59733541918996       708.8960031287851        945.1946708383799
0                         0.01660224723075599      0.035358473846258086     170.1959926089671        255.2939889134509        340.3919852179342
0                         0.016752828734481657     0.08018696008170517      398.9128825445013        598.3693238167517        797.8257650890026
0                         0.01676700980198475      0.04059856893265072      196.93114435235023       295.3967165285256        393.86228870470046
0                         0.016931772373213503     0.04583866401904335      223.66630607011942       335.4994591051796        447.33261214023884
0                         0.017174493243944156     0.004546183402697616     12.990722666198165       19.48608399929726        25.98144533239633
0                         0.017224928228335913     0.006705578502601882     24.008032068942025       36.01204810341307        48.01606413788405
0                         0.01727536321272767      0.008864973602506149     35.02533917340584        52.53800876010883        70.05067834681168
0                         0.0173076923076923       0.002                    0                        0                        0
0                         0.0173076923076923       0.10000000000000003      500.0000000000001        750.0000000000001        1000.0000000000002
0                         0.0173076923076923       0.10100000000000003      500.0000000000001        750.0000000000001        1000.0000000000002
0                         0.0173076923076923       0.10200000000000004      500.0000000000001        750.0000000000001        1000.0000000000002
0                         0.017307692307692312     0.001                    0                        0                        0
0                         0.017307692307692316     0                        0                        0                        0
0                         0.01740876147072671      0.08910853170070808      444.4312011541495        666.6468017312242        888.862402308299
0                         0.017546884321893972     0.09631705063848438      481.20942038184415       721.814130572766         962.4188407636883
0                         0.01803114222499906      0.09209306333293493      459.6584325068807        689.4876487603211        919.3168650137613